/*--------------------------------*- C++ -*----------------------------------*\
  =========                 |
  \\      /  F ield         | OpenFOAM: The Open Source CFD Toolbox
   \\    /   O peration     | Website:  https://openfoam.org
    \\  /    A nd           | Version:  6
     \\/     M anipulation  |
\*---------------------------------------------------------------------------*/

FoamFile
{
    version     2.0;
    format      ascii;
    class       volScalarField;
    location    "0";
    object      T ;
}

// * * * * * * * * * * * * * * * * * * * * * * * * * * * * * * * * * * * * * //

#include        "../setUp"

 
dimensions      [0 0 0 1 0 0 0];
 
internalField   uniform $T0;

boundaryField
{
    lower
    {
        type            zeroGradient;
    }
    upper
    {
        type            fixedGradient;
        gradient        uniform $TGradUpper;
    }
    west
    {
        type            codedFixedValue;
        value           uniform 0;
        redirectType    strongInversion;
        code
        #{
            scalar TBottom = 300.0;
            scalar TTop = 305;
            scalar dTdz = 0.003;
            scalar dTdz_zi = 0.05;
            scalar ziBottom = 700;
            scalar ziTop = 800;
            scalar zMin = 0.0;
            const fvPatch& boundaryPatch = patch();
            const vectorField& Cf = boundaryPatch.Cf();
            scalarField& field = *this;
            forAll(Cf, faceI)
            {
                scalar z = Cf[faceI].z();
                if (z<ziBottom)
                    field[faceI] = TBottom;
                else if (z<ziTop)
                    field[faceI] = TBottom + dTdz_zi * (z-ziBottom-zMin);
                else
                    field[faceI] = TTop + dTdz * (z-ziTop-zMin);
            }
        #};
    }
    east
    {
        type            zeroGradient;
    }
    south
    {
        type            zeroGradient;
    }
    north
    {
        type            zeroGradient;
    }
}


// ************************************************************************* //
